# vtk DataFile Version 5.1
vtk output
ASCII
DATASET UNSTRUCTURED_GRID
POINTS 3458 float
0.000159205 0.0459595 1e-07 0.0910679 0.0459595 1e-07 0.000159205 0.0459595 0.0909088 
0.00016037 0.0462879 0.0909088 0.0910679 0.0459595 0.0909088 0.00387147 0.0486486 0.999996 
0.000160265 0.0467696 0.999996 0.00230119 0.0432031 0.999996 0.0412046 0.0349339 0.999996 
0.000161941 0.0467691 0.272726 0.000140272 0.0463638 0.272726 0.0114969 0.0345959 0.272726 
0.170587 0.0345959 0.272726 0.013112 0.0572077 0.272726 0.00115249 0.0554099 1e-07 
0.00408894 0.0644474 1e-07 0.00884021 0.0726769 1e-07 0.0151987 0.0797386 1e-07 
0.0228864 0.0853241 1e-07 0.0315674 0.0891891 1e-07 0.0408623 0.0911648 1e-07 
0.0503648 0.0911648 1e-07 0.0596597 0.0891891 1e-07 0.0683407 0.0853241 1e-07 
0.0760285 0.0797386 1e-07 0.0823869 0.0726769 1e-07 0.0871382 0.0644474 1e-07 
0.0900746 0.0554099 1e-07 0.000159205 0.0459595 0.00909097 0.000159205 0.0459595 0.0181818 
0.000159205 0.0459595 0.0272727 0.000159205 0.0459595 0.0363636 0.000159205 0.0459595 0.0454544 
0.000159205 0.0459595 0.0545453 0.000159205 0.0459595 0.0636362 0.000159205 0.0459595 0.0727271 
0.000159205 0.0459595 0.0818179 0.000159502 0.0461237 0.0909088 0.00121724 0.0557096 0.0909088 
0.00420554 0.0647071 0.0909088 0.00899528 0.072889 0.0909088 0.0153781 0.0798993 0.0909088 
0.0230763 0.0854331 0.0909088 0.031755 0.0892496 0.0909088 0.0410365 0.0911828 0.0909088 
0.0505172 0.0911485 0.0909088 0.0597846 0.0891483 0.0909088 0.0684355 0.0852692 0.0909088 
0.0760935 0.07968 0.0909088 0.0824255 0.0726237 0.0909088 0.087156 0.0644074 0.0909088 
0.0900792 0.0553885 0.0909088 0.0910679 0.0459595 0.00909097 0.0910679 0.0459595 0.0181818 
0.0910679 0.0459595 0.0272727 0.0910679 0.0459595 0.0363636 0.0910679 0.0459595 0.0454544 
0.0910679 0.0459595 0.0545453 0.0910679 0.0459595 0.0636362 0.0910679 0.0459595 0.0727271 
0.0910679 0.0459595 0.0818179 0.00160779 0.0485161 0.999996 0.000455632 0.0445206 0.999996 
0.0120271 0.0411358 0.999996 0.0217529 0.0390685 0.999996 0.0314788 0.0370012 0.999996 
0.0318713 0.0383626 0.999996 0.022538 0.0417913 0.999996 0.0132048 0.0452199 0.999996 
0.000149524 0.0465665 0.272726 0.00331992 0.0380684 0.272726 0.02144 0.0345959 0.272726 
0.0313832 0.0345959 0.272726 0.0413263 0.0345959 0.272726 0.0512694 0.0345959 0.272726 
0.0612126 0.0345959 0.272726 0.0711557 0.0345959 0.272726 0.0810989 0.0345959 0.272726 
0.091042 0.0345959 0.272726 0.100985 0.0345959 0.272726 0.110928 0.0345959 0.272726 
0.120871 0.0345959 0.272726 0.130815 0.0345959 0.272726 0.140758 0.0345959 0.272726 
0.150701 0.0345959 0.272726 0.160644 0.0345959 0.272726 0.168839 0.0346004 0.282554 
0.16709 0.034605 0.292382 0.165342 0.0346096 0.30221 0.163593 0.0346141 0.312038 
0.161845 0.0346187 0.321866 0.160097 0.0346233 0.331694 0.158348 0.0346278 0.341522 
0.1566 0.0346324 0.35135 0.154851 0.034637 0.361178 0.153103 0.0346416 0.371006 
0.151355 0.0346461 0.380834 0.149606 0.0346507 0.390662 0.147858 0.0346553 0.40049 
0.146109 0.0346598 0.410318 0.144361 0.0346644 0.420146 0.142613 0.034669 0.429974 
0.140864 0.0346735 0.439802 0.139116 0.0346781 0.44963 0.137367 0.0346827 0.459458 
0.135619 0.0346872 0.469286 0.13387 0.0346918 0.479114 0.132122 0.0346964 0.488941 
0.130374 0.0347009 0.498769 0.128625 0.0347055 0.508597 0.126877 0.0347101 0.518425 
0.125128 0.0347147 0.528253 0.12338 0.0347192 0.538081 0.121632 0.0347238 0.547909 
0.119883 0.0347284 0.557737 0.118135 0.0347329 0.567565 0.116386 0.0347375 0.577393 
0.114638 0.0347421 0.587221 0.11289 0.0347466 0.597049 0.111141 0.0347512 0.606877 
0.109393 0.0347558 0.616705 0.107644 0.0347603 0.626533 0.105896 0.0347649 0.636361 
0.104147 0.0347695 0.646189 0.102399 0.034774 0.656017 0.100651 0.0347786 0.665845 
0.0989022 0.0347832 0.675673 0.0971538 0.0347877 0.685501 0.0954054 0.0347923 0.695329 
0.093657 0.0347969 0.705157 0.0919086 0.0348015 0.714985 0.0901602 0.034806 0.724813 
0.0884117 0.0348106 0.734641 0.0866633 0.0348152 0.744469 0.0849149 0.0348197 0.754297 
0.0831665 0.0348243 0.764125 0.0814181 0.0348289 0.773953 0.0796697 0.0348334 0.783781 
0.0779213 0.034838 0.793608 0.0761729 0.0348426 0.803436 0.0744245 0.0348471 0.813264 
0.072676 0.0348517 0.823092 0.0709276 0.0348563 0.83292 0.0691792 0.0348608 0.842748 
0.0674308 0.0348654 0.852576 0.0656824 0.03487 0.862404 0.063934 0.0348746 0.872232 
0.0621856 0.0348791 0.88206 0.0604372 0.0348837 0.891888 0.0586887 0.0348883 0.901716 
0.0569403 0.0348928 0.911544 0.0551919 0.0348974 0.921372 0.0534435 0.034902 0.9312 
0.0516951 0.0349065 0.941028 0.0499467 0.0349111 0.950856 0.0481983 0.0349157 0.960684 
0.0464499 0.0349202 0.970512 0.0447014 0.0349248 0.98034 0.042953 0.0349294 0.990168 
0.000161687 0.0467691 0.282689 0.000161667 0.0467691 0.292651 0.000161647 0.0467691 0.302614 
0.000161627 0.0467691 0.312577 0.000161608 0.0467691 0.322539 0.000161588 0.0467692 0.332502 
0.000161568 0.0467692 0.342464 0.000161548 0.0467692 0.352427 0.000161529 0.0467692 0.36239 
0.000161509 0.0467692 0.372352 0.000161489 0.0467692 0.382315 0.000161469 0.0467692 0.392277 
0.00016145 0.0467692 0.40224 0.00016143 0.0467692 0.412203 0.00016141 0.0467692 0.422165 
0.00016139 0.0467692 0.432128 0.000161371 0.0467692 0.44209 0.000161351 0.0467692 0.452053 
0.000161331 0.0467692 0.462016 0.000161311 0.0467693 0.471978 0.000161292 0.0467693 0.481941 
0.000161272 0.0467693 0.491903 0.000161252 0.0467693 0.501866 0.000161232 0.0467693 0.511829 
0.000161213 0.0467693 0.521791 0.000161193 0.0467693 0.531754 0.000161173 0.0467693 0.541716 
0.000161153 0.0467693 0.551679 0.000161134 0.0467693 0.561642 0.000161114 0.0467693 0.571604 
0.000161094 0.0467693 0.581567 0.000161074 0.0467693 0.591529 0.000161055 0.0467693 0.601492 
0.000161035 0.0467694 0.611455 0.000161015 0.0467694 0.621417 0.000160995 0.0467694 0.63138 
0.000160976 0.0467694 0.641342 0.000160956 0.0467694 0.651305 0.000160936 0.0467694 0.661268 
0.000160916 0.0467694 0.67123 0.000160897 0.0467694 0.681193 0.000160877 0.0467694 0.691155 
0.000160857 0.0467694 0.701118 0.000160837 0.0467694 0.71108 0.000160818 0.0467694 0.721043 
0.000160798 0.0467694 0.731006 0.000160778 0.0467694 0.740968 0.000160759 0.0467694 0.750931 
0.000160739 0.0467695 0.760893 0.000160719 0.0467695 0.770856 0.000160699 0.0467695 0.780819 
0.00016068 0.0467695 0.790781 0.00016066 0.0467695 0.800744 0.00016064 0.0467695 0.810706 
0.00016062 0.0467695 0.820669 0.000160601 0.0467695 0.830632 0.000160581 0.0467695 0.840594 
0.000160561 0.0467695 0.850557 0.000160541 0.0467695 0.860519 0.000160522 0.0467695 0.870482 
0.000160502 0.0467695 0.880445 0.000160482 0.0467695 0.890407 0.000160462 0.0467696 0.90037 
0.000160443 0.0467696 0.910332 0.000160423 0.0467696 0.920295 0.000160403 0.0467696 0.930258 
0.000160383 0.0467696 0.94022 0.000160364 0.0467696 0.950183 0.000160344 0.0467696 0.960145 
0.000160324 0.0467696 0.970108 0.000160304 0.0467696 0.980071 0.000160285 0.0467696 0.990033 
0.160745 0.0360091 0.272726 0.150903 0.0374223 0.272726 0.141061 0.0388356 0.272726 
0.131218 0.0402488 0.272726 0.121376 0.0416621 0.272726 0.111534 0.0430753 0.272726 
0.101692 0.0444885 0.272726 0.0918496 0.0459018 0.272726 0.0820074 0.047315 0.272726 
0.0721652 0.0487282 0.272726 0.062323 0.0501415 0.272726 0.0524808 0.0515547 0.272726 
0.0426386 0.052968 0.272726 0.0327964 0.0543812 0.272726 0.0229542 0.0557944 0.272726 
0.00436536 0.0548066 0.272726 0.174681 0.0349195 0.263626 0.178196 0.0352748 0.254289 
0.180959 0.0356682 0.244705 0.182732 0.0361064 0.234894 0.183217 0.0365949 0.224942 
0.1821 0.0371336 0.215047 0.179194 0.037712 0.205527 0.174588 0.0383101 0.196702 
0.168627 0.038908 0.188724 0.16173 0.0394943 0.181534 0.154249 0.0400661 0.174948 
0.146442 0.0406254 0.168749 0.138499 0.0411762 0.162722 0.130578 0.041723 0.156667 
0.122832 0.0422698 0.150391 0.115434 0.0428192 0.14371 0.108597 0.043372 0.136459 
0.102579 0.0439251 0.128518 0.0976588 0.0444711 0.119856 0.094063 0.044999 0.110566 
0.0918865 0.0454975 0.100843 0.000144283 0.0463598 0.263157 0.000147801 0.0463558 0.253588 
0.000150853 0.0463518 0.244018 0.00015347 0.0463478 0.234449 0.00015568 0.0463438 0.22488 
0.000157514 0.0463398 0.21531 0.000158999 0.0463358 0.205741 0.000160167 0.0463318 0.196172 
0.000161045 0.0463278 0.186602 0.000161663 0.0463238 0.177033 0.000162051 0.0463198 0.167463 
0.000162238 0.0463159 0.157894 0.000162252 0.0463119 0.148325 0.000162124 0.0463079 0.138755 
0.000161883 0.0463039 0.129186 0.000161558 0.0462999 0.119617 0.000161177 0.0462959 0.110047 
0.000160772 0.0462919 0.100478 0.0900746 0.036509 0.0909088 0.0871382 0.0274715 0.0909088 
0.0823869 0.0192421 0.0909088 0.0760285 0.0121803 0.0909088 0.0683407 0.00659483 0.0909088 
0.0596597 0.0027298 0.0909088 0.0503648 0.000754106 0.0909088 0.0408623 0.000754106 0.0909088 
0.0315674 0.0027298 0.0909088 0.0228864 0.00659483 0.0909088 0.0151987 0.0121803 0.0909088 
0.00884021 0.0192421 0.0909088 0.00408894 0.0274715 0.0909088 0.00115249 0.036509 0.0909088 
0.0900746 0.036509 1e-07 0.0871382 0.0274715 1e-07 0.0823869 0.0192421 1e-07 
0.0760285 0.0121803 1e-07 0.0683407 0.00659483 1e-07 0.0596597 0.0027298 1e-07 
0.0503648 0.000754106 1e-07 0.0408623 0.000754106 1e-07 0.0315674 0.0027298 1e-07 
0.0228864 0.00659483 1e-07 0.0151987 0.0121803 1e-07 0.00884021 0.0192421 1e-07 
0.00408894 0.0274715 1e-07 0.00115249 0.036509 1e-07 0.019649 0.0832682 0.0454642 
0.0715848 0.0832635 0.0454498 0.0458832 0.091413 0.0623875 0.0451402 0.0914113 0.0291099 
0.00718107 0.0702296 0.0650268 0.0840671 0.0701962 0.0649956 0.00740438 0.0705797 0.0254259 
0.0837958 0.0706215 0.0254057 0.066329 0.0864189 0.0679616 0.024135 0.086019 0.0680421 
0.0250016 0.0864717 0.0230764 0.0662826 0.0864426 0.0229442 0.00414062 0.064563 0.045468 
0.08709 0.0645551 0.0454507 0.0370307 0.0905961 0.0454534 0.0543286 0.0905705 0.0459802 
0.0386833 0.0908824 0.0752783 0.0386561 0.0908782 0.0156443 0.0888804 0.0598906 0.0149344 
[...]
POINT_DATA 3458
SCALARS scalars double
LOOKUP_TABLE default
1.6755246382 0.9791806223 0.9791806223 0.97594938187 0.12925491957 0.32674332908 0.2776476709 0.26537269646 0.54790553034 
-0.21848899462 -0.21871453724 -0.21891455992 0.84665342709 -0.17856744253 1.6242536107 1.5541884277 1.4657434756 1.3621923503 
1.2494702901 1.1352956356 1.0279120984 0.93487312743 0.86221409821 0.81414061254 0.79312421951 0.80015646774 0.83491193657 
0.89569004477 1.6314269455 1.5802975714 1.5225587782 1.4586874133 1.3892109713 1.3147032374 1.2357795488 1.1530917128 
1.0673226235 0.97756806161 0.87230841844 0.75258544172 0.62351150851 0.49302670378 0.36915058044 0.25873103277 0.16650020876 
0.094748228714 0.043676133967 0.012239424449 -0.00085049056056 0.0036947002414 0.026134812423 0.067560414732 0.88939364767 0.79870322351 
0.707858335 0.617609243 0.52870128787 0.44186873392 0.35782870532 0.27727526364 0.20087367574 0.30551630372 0.26085193696 
0.33248261206 0.40221609491 0.474164333 0.49090946769 0.43492101536 0.38013531824 -0.21860483282 -0.21999990002 -0.20935679925 
-0.19002571784 -0.16111227699 -0.12290209694 -0.075772635406 -0.02018945884 0.043298356616 0.11406364917 0.19140736677 0.27456547266 
0.36271649289 0.45498963119 0.55047337116 0.64822448055 0.74727732904 0.92700938405 1.0064051127 1.0843220202 1.1602511728 
1.2336966205 1.3041786361 1.3712368488 1.4344332513 1.4933550605 1.547617414 1.5968658838 1.6407787913 1.6790693085 
1.7114873312 1.7378211132 1.7578986488 1.7715887966 1.778802136 1.7794915513 1.7736525394 1.7613232392 1.7425841827 
1.7175577686 1.6864074632 1.6493367325 1.606587713 1.5584396307 1.5052069767 1.4472374533 1.3849097028 1.3186308344 
1.248833765 1.1759743914 1.1005286129 1.0229892221 0.94386268688 0.86366584185 0.7829225126 0.70216009423 0.62190610654 
0.54268474835 0.46501347365 0.38939961165 0.31633705305 0.2463030241 0.17975496944 0.11712756421 0.058829874861 0.0052426872228 
-0.043283980687 -0.086433164889 -0.12392302578 -0.15550868901 -0.180983845 -0.20018209643 -0.21297804515 -0.21928811126 -0.21907107899 
-0.21232836594 -0.19910401381 -0.17948440074 -0.15359767711 -0.12161292848 -0.083739071172 -0.040223487689 0.0086495891313 0.062560932655 
0.12115840756 0.18405926988 0.25085266704 0.32110232136 0.3943493798 0.47011541101 -0.20807267878 -0.18785742448 -0.15804382837 
-0.11892755494 -0.070896524324 -0.014427065188 0.049920809018 0.12150895379 0.19962742213 0.28350150513 0.37229941487 0.46514053332 
0.56110414555 0.65923857053 0.75857059904 0.85811514514 0.95688501528 1.0539006985 1.1482000803 1.2388479839 1.3249454448 
1.4056386256 1.4801272836 1.5476727072 1.6076050415 1.6593299313 1.7023344156 1.7361920144 1.7605669584 1.7752175189 
1.7799984047 1.7748622033 1.7598598509 1.7351401274 1.7009481808 1.6576230962 1.6055945329 1.5453784635 1.4775720571 
1.4028477567 1.3219466109 1.2356709247 1.144876303 1.0504631654 0.95336781667 0.85455316148 0.75499915491 0.65569308429 
0.55761977817 0.46175183962 0.36904000087 0.28040369479 0.19672193674 0.11882460736 0.047484222473 -0.01659172796 -0.072767796139 
-0.12048687821 -0.15927573911 -0.18874970572 -0.20861648166 -0.21867904609 -0.2188376075 -0.20909059342 -0.18953466601 -0.16036376341 
-0.12186717646 -0.074426679786 -0.018512745681 0.045320121609 0.11643888496 0.19413825227 0.76241422949 0.67829990008 0.59490769465 
0.51282974156 0.43264883727 0.3549343082 0.28023796823 0.2090902005 0.14199619143 0.079432343644 0.021842893229 -0.030363244546 
-0.076815378752 -0.1171836749 -0.15118149694 -0.20430773504 0.79987406568 0.74521915938 0.68109670552 0.60583329596 0.51822873301 
0.41876520742 0.3110804081 0.20190534345 0.098508562201 0.0062048589826 -0.071983637658 -0.13448442589 -0.18039364864 -0.20905411933 
-0.21991103435 -0.21257264778 -0.18707791994 -0.1443875336 -0.086957367726 -0.018911605271 0.054700304845 -0.21898841526 -0.21012065805 
-0.19219107636 -0.16536255105 -0.12987956477 -0.086065983105 -0.034322102404 0.024879005766 0.090995821162 0.16342333305 0.2414985847 
0.32450675189 0.41168770058 0.50224296338 0.59534306942 0.69013516017 0.78575082394 0.88131407132 0.21195574355 0.31433274552 
0.43280230545 0.56140042231 0.69246486262 0.81780410665 0.92995124339 1.0230844378 1.093366893 1.1387199261 1.1582627095 
1.1517427525 1.1192352923 1.0612474234 1.0802545292 1.1920461437 1.3065231906 1.4155401339 1.5121272707 1.591608462 
1.6521627887 1.6946460237 1.7217590881 1.7368564596 1.7427529387 1.7408274774 1.7306086293 1.7099146759 0.86687326153 
0.361144653 0.36673175754 0.6942875803 0.92589838003 0.1975067245 1.291299307 0.55452226136 0.18577761785 0.57040169005 
1.0033974887 0.59517018306 1.1960344919 0.39043213832 0.62067619447 0.44840245598 0.32031309912 0.8987292909 0.71379076294 
0.95987196479 0.67128308005 0.10483555049 0.63726617945 1.2502533541 0.15161858362 1.4949202081 0.18954169396 0.76001543195 
0.80473955548 0.23403135997 1.0716163497 0.48573338641 1.1578969598 1.3725148243 0.31325240746 0.54329988893 0.48977838326 
0.80745467835 0.62218079451 0.3198406734 1.0052556193 0.32429958483 0.40621048039 1.1272052982 0.10435016451 0.72428193257 
1.1638563283 0.43406795708 0.083102279045 1.4028043917 0.75927866652 0.69340229586 0.28280024781 0.46666823295 0.8355583309 
0.61701301468 0.66395380037 1.108205709 1.4783862114 0.25344355635 0.58071180237 1.2809597459 1.060862375 0.42273671824 
0.29926980744 0.47470945647 0.19641615201 0.89240580146 0.50841190057 1.2277235732 0.71571823772 0.06034723537 0.70965533009 
0.38924947134 0.74611739694 0.52892902976 0.29263750932 0.7666175091 0.5461917549 1.0259716759 0.39595072208 0.79850519537 
0.17136487756 1.2056125059 0.55292226657 0.37162212621 0.047937225353 1.368065989 0.51537080392 1.3411203028 0.13550107661 
0.71735362804 1.5829955967 0.97139543078 0.60811823746 0.8194158338 1.0066092537 0.28647581874 0.20674785042 1.4124822932 
1.0149499226 0.61876937867 0.44250461463 0.73348485006 0.92998653117 0.11926367298 0.63820354149 0.29060362974 0.65588171292 
1.0987528699 0.11624837386 0.82894394466 0.42839546936 0.96451374261 0.17809352216 0.55577006473 0.2407679354 1.2869349416 
0.49931562787 0.90540097344 1.0955679242 0.8174626293 0.13682195105 1.3252501597 0.6159407388 0.083203590137 0.19657561309 
1.5095885771 0.66255791331 0.8433570505 0.76001760909 0.53495478381 0.75465469384 0.66265403578 1.0556619548 0.19996695446 
1.5465750616 0.24087382873 1.4494218456 0.35248135204 1.2246286365 0.95088624831 0.61179621044 0.51734248648 1.1820750787 
0.4874918602 0.87636366667 0.29913767987 1.3119392503 0.47476945249 0.97285883603 1.0540826331 0.25660827822 1.1641797053 
0.34205604159 0.57081213946 0.13893174208 1.4169274193 0.89461644693 0.65774840097 1.1197436846 0.37632522956 0.36229441535 
0.81767966727 0.24906107837 0.32462157616 0.29323135309 0.71013711515 1.3736946587 1.7254596243 1.7445162662 1.4920135658 
1.0562887221 0.091019742036 0.75836733523 0.63796587338 0.74614686152 1.3372442562 1.7227443468 0.22757806246 1.3814269582 
1.75160456 1.7433942612 1.1614945482 0.28908435961 -0.040680764072 -0.19712242798 1.7389735177 1.6305131831 1.4847030175 
1.0008674262 1.7798502555 0.30078946569 1.0741026301 1.4636451775 -0.2181982889 0.61655407578 -0.16241170212 1.5408439441 
1.6126629393 0.78021256649 1.7775634908 1.1537000623 1.0240237488 -0.030690288698 0.26395039273 0.042257147609 1.2346987235 
1.5515737875 0.023271924651 -0.13497574145 0.40722560575 1.6648755632 0.55478116338 1.1215008653 1.5934508245 0.7835423385 
1.4447115535 -0.16003076697 0.39104289995 0.63632677859 1.0241558206 0.67374111655 1.7791074084 1.7530563221 1.0408588855 
0.39812748569 0.20897892604 0.13114612235 1.3000060199 0.66210977117 1.7799230739 -0.071774297163 1.3074156194 1.422165108 
0.39273142557 1.599103998 1.6045260176 1.7272606498 1.0939205417 1.6968399539 0.041872610997 0.074075455077 -0.21962421153 
1.5882557871 0.86865045064 1.7797624851 1.3125922888 1.6390889538 1.3141891734 1.6123954824 1.7092950553 0.42431944633 
-0.19137405751 -0.10544439672 0.97812541812 0.4059977216 1.4459627025 1.7794553734 1.032319404 1.6904970083 0.51082441871 
0.10235142258 0.87586165911 -0.16859146456 1.3570230331 1.7546490697 1.7799999968 1.2736172599 1.6364507411 0.88056726549 
1.2384737382 1.7299552819 1.7693654674 -0.096377971322 -0.21597352977 1.7622988608 1.6947815613 0.18880755439 -0.0527216022 
1.0162750161 0.2886798176 0.81018970005 1.6220761446 0.81322767245 1.5176354225 0.89293342411 0.097541128502 1.6904501513 
1.4399080082 0.2208956263 1.2826670046 -0.21193883752 -0.14863448728 0.52702414235 -0.12344628885 1.7598706414 0.50207265734 
0.45079170699 1.6625490968 0.56284128412 1.7616743194 0.75779708398 -0.11200536353 1.2652547551 1.0154676941 1.4906892197 
0.1073093101 0.19691407093 -0.20255952197 1.765068477 -0.19482770843 1.5966683845 0.40842139555 0.22682590264 1.0955695198 
0.68546672779 1.2449847075 0.69752921811 0.82277096307 1.5376456976 1.1877105153 0.074539377375 -0.099946779704 0.2020624201 
1.4821984033 1.5357843652 1.7541365471 -0.21334866373 0.83073721956 1.2118188724 1.77965962 1.1952412986 -0.015530618908 
1.3952439587 -0.0077818623677 0.98283025508 0.6002521502 0.8290108813 0.78342439278 1.4778188827 0.67291396727 0.93958377947 
1.2087109638 1.682859554 0.8851646931 1.4533011829 0.81594409043 0.10593941505 0.62711322033 1.0821948532 0.19046104279 
0.95697400523 -0.036303770216 0.42995824863 0.78359014514 1.4705249808 0.43620795997 1.4942899184 1.4995803164 1.7607095384 
-0.026684309788 -0.14945186721 0.27181311959 1.6346079349 1.2997959442 1.11992624 1.7782899869 1.6479872336 1.760139185 
1.7680241883 0.24776023528 0.33631241687 1.2091193492 0.44992719522 1.7399092641 0.58514577468 0.06163434235 -0.10608409811 
-0.18124769639 0.047065681674 1.0701396779 1.1399168616 -0.1676330393 1.2626083239 0.28445109692 1.3118664044 0.39957458065 
-0.21958366702 0.85095515697 0.60868822891 -0.1789837912 -0.2022020427 0.38119666578 1.6439421786 1.6708218985 1.3443741379 
0.15164495668 1.4871192108 1.6829600817 0.011563812066 1.7704294813 0.63716013592 0.56554316844 1.6294048372 1.5974310352 
1.4147345055 1.3001896892 1.7337495873 1.1705709575 -0.21860754384 1.7058949995 1.7103069957 0.45549492458 0.57252355865 
0.2544333845 1.7659498956 0.61381502061 -0.080885742132 1.6851723305 1.534597402 0.73194437084 0.23528466225 0.078865697569 
1.7137698041 1.6216704718 1.7611162882 1.3490289581 0.24681976957 1.7784724657 1.7024557104 0.9373766395 0.035681248645 
1.0922926632 1.7664777929 -0.051334187588 0.24285795416 0.4033819057 1.5596017406 1.0386431033 1.1584974663 1.5706858676 
0.87941738727 1.2002016425 0.093909324102 1.7735916078 1.0150200706 -0.062459760119 -0.20630454949 1.0084284917 -0.20732187482 
0.8726355579 0.10380791408 0.87028100538 0.15837742763 1.430804563 -0.10930476298 0.10707249237 1.259558845 1.7798352388 
-0.038782504916 1.3788081563 1.6890141058 1.6784341576 -0.11311473697 1.7055906275 1.7614944333 1.4235397045 1.4392062943 
0.52740057832 0.52587950731 1.6023625863 0.95060003397 1.5617898946 1.587339682 1.5715198291 -0.2036740987 1.6023404104 
1.7197585677 0.74448618549 1.7789736983 -0.17968280311 1.6860644902 1.7659687446 -0.046161284492 1.2452130093 -0.14399826085 
1.3829313502 1.6986880185 1.1636918092 1.7633708528 1.4097538333 0.31495939504 1.5323214565 1.4454200624 1.7361145589 
1.4266794009 1.6233079352 1.0119338174 1.7702552372 1.1563335703 1.1201487786 1.7729140803 1.6033166511 0.87855449706 
1.4182608424 -0.14846752299 -0.18374611389 0.84123086168 0.081755907296 1.4894827513 1.3777832562 1.0629108518 -0.11310653369 
0.49984618238 0.28001571554 0.9472433727 1.7601266798 -0.0037715413904 0.52613216577 1.3905472038 -0.11935534778 0.68391527795 
1.5401021595 1.5551909256 1.7239018646 -0.15319704272 -0.012933632469 1.6819075417 -0.21632990576 -0.10330645719 1.7791215255 
1.7731597902 1.753761523 1.1973259287 1.7149136845 1.2690237177 0.071872164964 0.18451100394 1.328232889 1.6077289714 
1.4927281036 -0.21742792002 1.6942180964 0.50407282381 1.7467536854 1.589644059 1.1328062428 1.1661460294 1.6676504833 
0.92529746874 -0.17010271758 -0.029280544744 1.5378673272 0.79549679584 0.50488036314 0.96805635336 1.7499157341 0.95703770126 
0.39247905807 0.52762662412 -0.21901125173 1.7799372939 0.4296683867 0.21704289523 1.5492646168 1.7701514989 1.7383670214 
1.2686460121 1.22379058 1.5336362869 1.7745253992 0.6173631366 0.23672532107 0.98283636458 0.020636747071 -0.21838404083 
1.7301020173 0.66964628644 0.90278800394 1.7365028195 1.7482636903 0.6457405172 -0.21047063169 0.9505461941 -0.21507236035 
1.6658683375 1.1388498516 1.7783990674 1.5516196057 0.22127190456 -0.17893733546 -0.18343453226 1.7765721059 0.38580226132 
1.448298304 1.0791421693 -0.0039868873598 0.79605811743 0.0023885524726 0.98969091989 0.67104753584 0.52908911704 0.76135850708 
0.7702314165 0.32421467036 0.7385386547 0.44879223799 0.89892923772 -0.21675853532 1.7731495756 0.39609129019 0.20691547209 
0.33263708079 1.3121303888 1.6396311702 1.2120342934 -0.11845608694 1.6916451151 0.026841992084 -0.2013323477 1.2640520841 
0.2902257033 0.75892529467 1.3703440591 1.0969312878 1.7159775372 1.6763556495 1.7778596361 0.48913148431 0.49154644047 
0.29601893273 0.10687915059 1.0468691959 1.2342539398 1.5191029858 1.1223322831 0.10832982802 1.7790662252 1.4844257184 
0.86651828984 -0.041235438944 0.33942310987 0.051238572631 0.53210660698 -0.18974889055 0.72610216302 0.29430436733 -0.19734286956 
1.2407978527 1.7530697702 0.64499765087 0.79828934 -0.070721277822 0.19219712539 1.2492611119 1.748740283 -0.21997212081 
0.91315452616 1.765595559 1.670814651 1.4668430255 0.86202628698 1.7735318605 1.7279755804 0.0125843294 0.18138202845 
1.7795539058 1.0164938102 1.1124852629 0.27508110685 -0.172412307 0.025385244399 1.5215837828 1.3724109274 1.106480058 
0.15871722587 -0.20991885942 0.57308245517 0.15399029035 -0.20308565205 1.2952704862 0.22553705843 0.53601198812 1.3184020908 
0.76586725756 0.99763940465 -0.21868281924 -0.16910496773 1.7358706319 1.1642573472 0.90445772792 0.56514971541 1.6170335203 
0.84950348045 1.5999846424 0.60075645552 0.11151611351 1.6628073184 -0.16356942164 1.688535221 -0.14000159756 1.4504005062 
0.34262808168 0.37824356168 0.7266836159 0.33530920633 -0.08055825165 0.26172590648 1.3187820895 -0.10225555796 0.90995215144 
-0.19068297401 1.3885412553 -0.11575822738 1.6682058318 1.5037164826 0.41641991648 0.77715761274 0.66357351997 1.6906603609 
0.12700479644 0.12489404998 1.2458110483 1.1608760771 0.32054496692 0.49117955189 1.2856918719 0.032489847438 1.736544688 
1.5986989399 0.4149991446 1.3311110815 1.3039491509 1.1399028704 1.3634103586 1.7441986019 0.55130438777 0.20967269361 
1.4118956484 0.72966547046 0.69813216218 -0.025904313027 1.7737038915 1.6460070679 0.74641094673 0.16324744643 1.370902486 
0.48231216933 0.30242796524 -0.092968069243 -0.044276399272 0.67260638099 1.6221492087 1.6591685283 1.2971381416 -0.099188808917 
0.70370402653 1.6360946983 0.62780037533 0.1805811952 1.3314181341 0.29404335576 0.16058271317 -0.060204754176 1.4828111351 
1.5603089349 -0.2100077428 1.7707094081 -0.20281262313 -0.1650600756 0.89753660211 0.37367440714 0.20289462996 0.83877684404 
0.32705187271 1.3443814497 1.5804702733 -0.057211514835 0.13097557682 1.5156182285 1.6343043527 1.6373962702 -0.056011568781 
0.5678606335 -0.21788728903 1.7738151566 -0.095266717003 -0.056421531835 1.0224514796 -0.11192307015 0.14516326204 1.7689397741 
0.89772062456 0.64399121054 0.02864753864 -0.094638479426 1.3078539287 1.4909355969 0.0080326733447 0.17994657822 1.7785035092 
1.7412777025 1.7376994232 0.53241861213 1.771824114 0.20596196443 0.031357842015 0.14879858121 -0.15770564632 1.4632007661 
1.631821323 1.2111372335 1.5335025607 1.2681187473 1.4861467968 1.0131554309 0.67468799408 0.32108115585 1.6495696767 
0.92430191175 -0.14403803425 1.5628909661 1.1637807452 1.2044651142 1.7770988333 1.1692557255 0.84446549414 -0.20438753126 
-0.055216437558 1.3891576864 1.7790938032 1.0476355754 1.4081977285 1.0124007729 0.053451057288 0.62525061106 0.16370914806 
1.2406903071 1.4576529163 1.6916694509 1.1326584561 0.79053485683 0.10901880923 0.96690109341 0.036679990866 -0.10285618183 
1.6004876007 1.352712764 1.7775800733 0.75811352467 1.4615411293 0.78278342116 1.0540244004 -0.20087323074 0.68110834583 
1.6269759841 0.3591540863 1.6480879291 0.56574842741 0.92863217082 -0.14885257941 1.2268611254 0.52729453172 0.33903483423 
0.2221208743 0.029026413278 1.6539378649 1.7784616283 1.6480991214 0.27775509643 1.0880610498 1.7202270392 1.7443598813 
-0.19083465586 0.85627385177 1.2269923476 0.94609700487 -0.16218185243 0.98447743264 0.67762924276 1.2431905366 1.1474503055 
0.73267512334 0.059833499161 1.7553440602 -0.046638643361 1.7674968952 1.0584487317 0.026305088158 1.4068083113 1.1307259697 
1.6234469029 1.4285157471 0.91112709271 0.98431814407 -0.070422345332 1.1302881139 -0.21841364861 1.7558192736 0.38740220715 
-0.033664335228 0.87176406197 1.4047861781 1.5568070635 1.7234343536 1.4382259013 1.0627470344 0.82638482129 1.3665523381 
0.28520134604 1.4716795898 0.21172271486 1.7336224382 1.6690514316 1.7676637181 0.48648081885 1.5592785343 1.4069418566 
1.0358580114 -0.20622776426 1.5109418697 1.7769990915 0.48646727716 1.5501972339 1.0799039804 0.86194205356 1.3966271049 
-0.10565312258 0.080678086833 1.725264937 1.241247656 0.69240613201 1.4198353864 1.0881633918 1.6451470084 -0.14611216463 
1.0342224414 0.96835063646 -0.18530636988 1.6330988649 1.7295416144 1.5186444548 1.6998796345 1.7131446464 1.0978830834 
0.8494702414 0.92202054683 1.7307836136 0.11503641718 1.5333146213 0.70526485253 1.2672412058 0.30844224688 1.341498555 
1.3670323087 -0.070333391814 1.7568254367 1.0560148231 -0.1452120341 1.4559893685 1.6841615181 0.62309392999 0.78593622608 
1.5508636382 -0.026973832346 0.055983239914 0.32596422949 0.070854591456 0.91997209675 1.2636988442 0.87141263115 0.1212806758 
1.2816917788 0.37273705039 1.7720782603 0.50604452156 0.60985425522 0.30904864028 1.7147156809 -0.21736587628 0.72339210408 
1.77678964 1.6824484587 0.52490537935 1.1550374101 0.61850326028 -0.015182355902 1.7789753585 0.42945221137 0.39012665711 
0.43421435271 0.076846011155 0.17296684624 1.7679610905 1.1101644035 1.1429404362 0.96892860936 1.4762803395 0.28732485658 
0.88131456167 0.37279108443 1.7744585957 -0.049839931413 0.10463662165 1.7740717287 1.7799017319 1.6357817798 1.7737607401 
1.3248346728 0.61535384199 -0.0039225790335 0.44746370199 1.4851787605 -0.14281760828 1.5170360761 -0.14544784491 1.5767418426 
0.48657906819 0.92994004836 -0.1790047211 1.7566998836 1.6769517424 1.5229828197 0.69385042514 0.1632496455 1.3580393159 
1.5558738401 -0.17968245899 1.6600898606 -0.16498529581 1.7619316813 1.3204344761 0.052523227926 1.5890223573 1.7354598797 
0.80214162223 0.28451138829 0.28872157695 1.6965785348 -0.19983748648 1.1810474025 1.662149043 0.59662699162 0.64853448386 
1.7465465263 0.5866275319 0.1992510737 -0.21423173783 1.3926429396 0.099282548046 1.1429058762 1.7671731314 0.61613120655 
1.7040790621 1.3259864997 0.32618052762 1.5265727495 -0.0086062731139 0.42006807001 1.7793985615 1.1653809827 1.5810006771 
0.40345136365 -0.20315370463 1.1369668769 0.17873372718 0.66310108948 1.7764046037 0.78932368744 0.028479130002 -0.13115081742 
1.0065836595 1.1501925842 1.7494673828 1.2432059497 1.7124019707 -0.20737154344 0.36878978442 0.14156065809 1.6701636411 
1.7769052177 1.5406284763 1.7130973656 -0.1829011747 1.6879513723 1.3298152253 -0.21185773556 0.55943310058 1.5634093572 
1.5244016267 1.3750124929 0.38501715325 1.7779664675 1.7101481791 1.3259612324 1.5337484828 0.51687946293 -0.19093232855 
-0.15784682402 1.7353218853 0.47393868949 0.40916795645 0.66342699007 0.32586460462 1.4085056078 1.19268836 0.0027036458021 
1.6063940036 0.30710342426 1.4464636332 1.7249058999 1.7596599896 1.7281067143 -0.21961297526 1.483617813 1.7484157233 
1.3812963996 0.080391420306 0.61442852068 -0.054161694738 1.6672969555 -0.1358612559 1.6072972403 1.6975691655 -0.1810132403 