# vtk DataFile Version 5.1
vtk output
ASCII
DATASET UNSTRUCTURED_GRID
POINTS 27 float
0 0 0 1 0 0 2 0 0 
0 1 0 1 1 0 2 1 0 
0 2 0 1 2 0 2 2 0 
0 0 1 1 0 1 2 0 1 
0 1 1 1 1 1 2 1 1 
0 2 1 1 2 1 2 2 1 
0 0 2 1 0 2 2 0 2 
0 1 2 1 1 2 2 1 2 
0 2 2 1 2 2 2 2 2 

METADATA
INFORMATION 2
NAME L2_NORM_RANGE LOCATION vtkDataArray
DATA 2 0 3.4641 
NAME L2_NORM_FINITE_RANGE LOCATION vtkDataArray
DATA 2 0 3.4641 

CELLS 49 192
OFFSETS vtktypeint64
0 4 8 12 16 20 24 28 32 
36 40 44 48 52 56 60 64 68 
72 76 80 84 88 92 96 100 104 
108 112 116 120 124 128 132 136 140 
144 148 152 156 160 164 168 172 176 
180 184 188 192 
CONNECTIVITY vtktypeint64
4 12 10 13 9 10 4 12 3 
9 4 12 4 9 1 10 1 4 
3 9 1 3 0 9 2 4 1 
10 2 5 4 10 5 10 2 11 
4 10 5 13 10 11 5 13 5 
13 11 14 4 6 3 12 4 7 
6 12 7 12 4 13 6 12 7 
15 12 13 7 15 7 15 13 16 
5 7 4 13 5 8 7 13 8 
13 5 14 7 13 8 16 13 14 
8 16 8 16 14 17 10 12 9 
18 10 13 12 18 13 18 10 19 
12 18 13 21 18 19 13 21 13 
21 19 22 11 13 10 19 11 14 
13 19 14 19 11 20 13 19 14 
22 19 20 14 22 14 22 20 23 
13 15 12 21 13 16 15 21 16 
21 13 22 15 21 16 24 21 22 
16 24 16 24 22 25 14 16 13 
22 14 17 16 22 17 22 14 23 
16 22 17 25 22 23 17 25 17 
25 23 26 
CELL_TYPES 48
10
10
10
10
10
10
10
10
10
10
10
10
10
10
10
10
10
10
10
10
10
10
10
10
10
10
10
10
10
10
10
10
10
10
10
10
10
10
10
10
10
10
10
10
10
10
10
10

POINT_DATA 27
FIELD FieldData 2
DistanceToCenter 1 27 float
1.73205 1.41421 1.73205 1.41421 1 1.41421 1.73205 1.41421 1.73205 
1.41421 1 1.41421 1 0 1 1.41421 1 1.41421 
1.73205 1.41421 1.73205 1.41421 1 1.41421 1.73205 1.41421 1.73205 

METADATA
INFORMATION 0

Polynomial 1 27 float
1 2 3 2 3 4 3 4 5 
2 3 4 3 4 5 4 5 6 
3 4 5 4 5 6 5 6 7 

METADATA
INFORMATION 0

